 *******************************************************************************
 ** Cite this program as: MOPAC2016, Version: 22.047L, James J. P. Stewart,   **
 **                           web-site: HTTP://OpenMOPAC.net.                 **
 *******************************************************************************
 **                                                                           **
 **                                MOPAC2016                                  **
 **                                                                           **
 *******************************************************************************

                              PM6 CALCULATION RESULTS

 *******************************************************************************
 *  CALCULATION DONE:                                Mon Apr 18 10:21:07 2022  *
 *  PM6        - The PM6 Hamiltonian to be used
 *  A0         - INPUT GEOMETRY IS IN ATOMIC UNITS (A0)
 *
 *  EXTERNAL=n  -  DEFAULT PARAMETERS RESET USING DATA IN FILES: 
 *                 "tmparam/2329170641839585038"
 *  XYZ        - CARTESIAN COORDINATE SYSTEM TO BE USED
 *  1SCF       - DO 1 SCF AND THEN STOP 
 *  T=         - A TIME OF 172800.0 SECONDS REQUESTED
 *  DUMP=N     - RESTART FILE WRITTEN EVERY 7200.0 SECONDS REQUESTED
 *  SCFCRT     - DEFAULT SCF CRITERION REPLACED BY   0.100E-20
 *  AUX        - OUTPUT AUXILIARY INFORMATION
 *******************************************************************************
XYZ 1SCF A0 scfcrt=1.D-21 aux(precision=14) PM6 external=tmparam/2329170641839585038
 Comment line 1
 Comment line 2
   ATOM   CHEMICAL          X               Y               Z
  NUMBER   SYMBOL      (ANGSTROMS)     (ANGSTROMS)     (ANGSTROMS)
 
     1       C          0.00000000  *   0.00086270  *  -1.69518259  *
     2       C          0.00000000  *   0.00098584  *  -0.39884432  *
     3       C          0.00000000  *   0.64631443  *   0.93201293  *
     4       C          0.00000000  *  -0.64408988  *   0.93213552  *
     5       H          0.00000000  *   1.61408542  *   1.39226735  *
     6       H          0.00000000  *  -1.61815852  *   1.39561194  *
 


          CARTESIAN COORDINATES 

    NO.       ATOM           X           Y           Z

     1         C          0.0000      0.0009     -1.6952
     2         C          0.0000      0.0010     -0.3988
     3         C          0.0000      0.6463      0.9320
     4         C          0.0000     -0.6441      0.9321
     5         H          0.0000      1.6141      1.3923
     6         H          0.0000     -1.6182      1.3956

 Parameters read in from file: "tmparam/2329170641839585038"


         Parameters read in

      Parameter Type  Element    Parameter
            USS           H      -6.97564792
            ZS            H      -0.52100964
            BETAS         H     -14.53398535
            GSS           H      17.58545556
            USS           C     -49.67111165
            UPP           C     -41.14045509
            ZS            C       2.17587874
            ZP            C       1.87220301
            BETAS         C     -17.27576320
            BETAP         C      -7.20079657
            GSS           C       6.54675267
            GSP           C      16.04941019
            GPP           C       5.95810984
            GP2           C       9.07201950
            HSP           C      -6.02496142
            FN11          C       0.08547371
  (Parameters are available if SPARKLE is used)

           Data are not available for Hydrogen.

 ******************************************************************************
 *                                                                            *
 *     Error and normal termination messages reported in this calculation     *
 *                                                                            *
 *  Data are not available for Hydrogen.                                      *
 * JOB ENDED NORMALLY                                                         *
 *                                                                            *
 ******************************************************************************



 TOTAL JOB TIME:             0.01 SECONDS

 == MOPAC DONE ==
